s 0.007960887 _0_ MAC  --- 0 message 90 [0 ffffffff 0 800] [energy 1000.000000 ei 0.000 es 0.000 et 0.000 er 0.000] ------- [0:255 -1:255 32 0] 
N -t 0.007961 -n 5 -e 999.992169
N -t 0.007962 -n 10 -e 999.992169
N -t 0.007962 -n 1 -e 999.992169
N -t 0.007962 -n 6 -e 999.992169
N -t 0.007962 -n 11 -e 999.992168
N -t 0.007962 -n 15 -e 999.992168
N -t 0.007962 -n 16 -e 999.992168
N -t 0.007962 -n 20 -e 999.992168
N -t 0.007962 -n 2 -e 999.992168
N -t 0.007962 -n 7 -e 999.992168
N -t 0.007962 -n 21 -e 999.992168
N -t 0.007962 -n 12 -e 999.992168
N -t 0.007963 -n 25 -e 999.992168
N -t 0.007963 -n 17 -e 999.992168
N -t 0.007963 -n 26 -e 999.992168
r 0.008681220 _5_ MAC  --- 0 message 32 [0 ffffffff 0 800] [energy 999.992169 ei 0.007 es 0.000 et 0.000 er 0.001] ------- [0:255 -1:255 32 0] 
r 0.008681553 _10_ MAC  --- 0 message 32 [0 ffffffff 0 800] [energy 999.992169 ei 0.007 es 0.000 et 0.000 er 0.001] ------- [0:255 -1:255 32 0] 
r 0.008681553 _1_ MAC  --- 0 message 32 [0 ffffffff 0 800] [energy 999.992169 ei 0.007 es 0.000 et 0.000 er 0.001] ------- [0:255 -1:255 32 0] 
r 0.008681632 _6_ MAC  --- 0 message 32 [0 ffffffff 0 800] [energy 999.992169 ei 0.007 es 0.000 et 0.000 er 0.001] ------- [0:255 -1:255 32 0] 
s 0.027320073 _44_ MAC  --- 1 message 90 [0 ffffffff 2c 800] [energy 1000.000000 ei 0.000 es 0.000 et 0.000 er 0.000] ------- [44:255 -1:255 32 0] 
N -t 0.027320 -n 39 -e 999.974746
N -t 0.027320 -n 49 -e 999.974746
N -t 0.027321 -n 34 -e 999.974745
N -t 0.027321 -n 43 -e 999.974745
N -t 0.027321 -n 48 -e 999.974745
N -t 0.027321 -n 38 -e 999.974745
N -t 0.027321 -n 33 -e 999.974745
N -t 0.027321 -n 29 -e 999.974745
N -t 0.027321 -n 28 -e 999.974745
N -t 0.027321 -n 24 -e 999.974745
N -t 0.027321 -n 42 -e 999.974745
N -t 0.027321 -n 47 -e 999.974745
N -t 0.027321 -n 37 -e 999.974745
N -t 0.027322 -n 23 -e 999.974745
N -t 0.027322 -n 32 -e 999.974745
N -t 0.027322 -n 19 -e 999.974744
N -t 0.027322 -n 27 -e 999.974744
N -t 0.027322 -n 18 -e 999.974744
r 0.028040407 _39_ MAC  --- 1 message 32 [0 ffffffff 2c 800] [energy 999.974746 ei 0.025 es 0.000 et 0.000 er 0.001] ------- [44:255 -1:255 32 0] 
r 0.028040407 _49_ MAC  --- 1 message 32 [0 ffffffff 2c 800] [energy 999.974746 ei 0.025 es 0.000 et 0.000 er 0.001] ------- [44:255 -1:255 32 0] 
r 0.028040740 _34_ MAC  --- 1 message 32 [0 ffffffff 2c 800] [energy 999.974745 ei 0.025 es 0.000 et 0.000 er 0.001] ------- [44:255 -1:255 32 0] 
r 0.028040740 _43_ MAC  --- 1 message 32 [0 ffffffff 2c 800] [energy 999.974745 ei 0.025 es 0.000 et 0.000 er 0.001] ------- [44:255 -1:255 32 0] 
r 0.028040819 _48_ MAC  --- 1 message 32 [0 ffffffff 2c 800] [energy 999.974745 ei 0.025 es 0.000 et 0.000 er 0.001] ------- [44:255 -1:255 32 0] 
r 0.028040819 _38_ MAC  --- 1 message 32 [0 ffffffff 2c 800] [energy 999.974745 ei 0.025 es 0.000 et 0.000 er 0.001] ------- [44:255 -1:255 32 0] 
s 0.030646464 _2_ MAC  --- 2 message 90 [0 ffffffff 2 800] [energy 999.992168 ei 0.007 es 0.000 et 0.000 er 0.001] ------- [2:255 -1:255 32 0] 
N -t 0.030647 -n 7 -e 999.971734
N -t 0.030647 -n 1 -e 999.971734
N -t 0.030647 -n 12 -e 999.971734
N -t 0.030647 -n 3 -e 999.971752
N -t 0.030647 -n 6 -e 999.971734
N -t 0.030647 -n 8 -e 999.971752
N -t 0.030647 -n 11 -e 999.971733
N -t 0.030647 -n 13 -e 999.971751
N -t 0.030647 -n 17 -e 999.971733
N -t 0.030648 -n 16 -e 999.971733
N -t 0.030648 -n 18 -e 999.971733
N -t 0.030648 -n 0 -e 999.971373
N -t 0.030648 -n 22 -e 999.971751
N -t 0.030648 -n 4 -e 999.971751
N -t 0.030648 -n 5 -e 999.971733
N -t 0.030648 -n 9 -e 999.971751
N -t 0.030648 -n 21 -e 999.971733
N -t 0.030648 -n 10 -e 999.971733
N -t 0.030648 -n 23 -e 999.971733
N -t 0.030648 -n 14 -e 999.971751
N -t 0.030648 -n 15 -e 999.971733
N -t 0.030648 -n 27 -e 999.971733
N -t 0.030648 -n 19 -e 999.971733
N -t 0.030648 -n 26 -e 999.971733
N -t 0.030648 -n 28 -e 999.971733
r 0.031366797 _7_ MAC  --- 2 message 32 [0 ffffffff 2 800] [energy 999.971734 ei 0.027 es 0.000 et 0.000 er 0.001] ------- [2:255 -1:255 32 0] 
r 0.031367131 _1_ MAC  --- 2 message 32 [0 ffffffff 2 800] [energy 999.971734 ei 0.027 es 0.000 et 0.000 er 0.001] ------- [2:255 -1:255 32 0] 
r 0.031367131 _12_ MAC  --- 2 message 32 [0 ffffffff 2 800] [energy 999.971734 ei 0.027 es 0.000 et 0.000 er 0.001] ------- [2:255 -1:255 32 0] 
r 0.031367131 _3_ MAC  --- 2 message 32 [0 ffffffff 2 800] [energy 999.971752 ei 0.028 es 0.000 et 0.000 er 0.001] ------- [2:255 -1:255 32 0] 
r 0.031367209 _6_ MAC  --- 2 message 32 [0 ffffffff 2 800] [energy 999.971734 ei 0.027 es 0.000 et 0.000 er 0.001] ------- [2:255 -1:255 32 0] 
r 0.031367209 _8_ MAC  --- 2 message 32 [0 ffffffff 2 800] [energy 999.971752 ei 0.028 es 0.000 et 0.000 er 0.001] ------- [2:255 -1:255 32 0] 
s 0.087971456 _13_ MAC  --- 3 message 90 [0 ffffffff d 800] [energy 999.971751 ei 0.028 es 0.000 et 0.000 er 0.001] ------- [13:255 -1:255 32 0] 
N -t 0.087972 -n 8 -e 999.920141
N -t 0.087972 -n 18 -e 999.920123
N -t 0.087972 -n 3 -e 999.920141
N -t 0.087972 -n 12 -e 999.920123
N -t 0.087972 -n 23 -e 999.920123
N -t 0.087972 -n 14 -e 999.920141
N -t 0.087972 -n 17 -e 999.920123
N -t 0.087972 -n 7 -e 999.920123
N -t 0.087972 -n 9 -e 999.920141
N -t 0.087972 -n 19 -e 999.920123
N -t 0.087972 -n 22 -e 999.920141
N -t 0.087972 -n 2 -e 999.919763
N -t 0.087972 -n 4 -e 999.920141
N -t 0.087972 -n 24 -e 999.920141
N -t 0.087972 -n 28 -e 999.920123
N -t 0.087973 -n 27 -e 999.920123
N -t 0.087973 -n 29 -e 999.920141
N -t 0.087973 -n 11 -e 999.920122
N -t 0.087973 -n 33 -e 999.920140
N -t 0.087973 -n 16 -e 999.920122
N -t 0.087973 -n 6 -e 999.920122
N -t 0.087973 -n 32 -e 999.920140
N -t 0.087973 -n 21 -e 999.920122
N -t 0.087973 -n 1 -e 999.920122
N -t 0.087973 -n 34 -e 999.920140
N -t 0.087973 -n 26 -e 999.920122
N -t 0.087973 -n 38 -e 999.920140
N -t 0.087973 -n 37 -e 999.920140
N -t 0.087973 -n 39 -e 999.920140
r 0.088691789 _8_ MAC  --- 3 message 32 [0 ffffffff d 800] [energy 999.920141 ei 0.079 es 0.000 et 0.000 er 0.001] ------- [13:255 -1:255 32 0] 
r 0.088691789 _18_ MAC  --- 3 message 32 [0 ffffffff d 800] [energy 999.920123 ei 0.078 es 0.000 et 0.000 er 0.002] ------- [13:255 -1:255 32 0] 
r 0.088692122 _3_ MAC  --- 3 message 32 [0 ffffffff d 800] [energy 999.920141 ei 0.079 es 0.000 et 0.000 er 0.001] ------- [13:255 -1:255 32 0] 
r 0.088692122 _12_ MAC  --- 3 message 32 [0 ffffffff d 800] [energy 999.920123 ei 0.078 es 0.000 et 0.000 er 0.002] ------- [13:255 -1:255 32 0] 
r 0.088692122 _23_ MAC  --- 3 message 32 [0 ffffffff d 800] [energy 999.920123 ei 0.078 es 0.000 et 0.000 er 0.002] ------- [13:255 -1:255 32 0] 
r 0.088692122 _14_ MAC  --- 3 message 32 [0 ffffffff d 800] [energy 999.920141 ei 0.079 es 0.000 et 0.000 er 0.001] ------- [13:255 -1:255 32 0] 
r 0.088692201 _17_ MAC  --- 3 message 32 [0 ffffffff d 800] [energy 999.920123 ei 0.078 es 0.000 et 0.000 er 0.002] ------- [13:255 -1:255 32 0] 
r 0.088692201 _7_ MAC  --- 3 message 32 [0 ffffffff d 800] [energy 999.920123 ei 0.078 es 0.000 et 0.000 er 0.002] ------- [13:255 -1:255 32 0] 
r 0.088692201 _9_ MAC  --- 3 message 32 [0 ffffffff d 800] [energy 999.920141 ei 0.079 es 0.000 et 0.000 er 0.001] ------- [13:255 -1:255 32 0] 
r 0.088692201 _19_ MAC  --- 3 message 32 [0 ffffffff d 800] [energy 999.920123 ei 0.078 es 0.000 et 0.000 er 0.002] ------- [13:255 -1:255 32 0] 
s 0.118253824 _43_ MAC  --- 4 message 90 [0 ffffffff 2b 800] [energy 999.974745 ei 0.025 es 0.000 et 0.000 er 0.001] ------- [43:255 -1:255 32 0] 
N -t 0.118254 -n 38 -e 999.892869
N -t 0.118254 -n 48 -e 999.892887
N -t 0.118254 -n 33 -e 999.892869
N -t 0.118254 -n 42 -e 999.892887
N -t 0.118254 -n 44 -e 999.892527
N -t 0.118255 -n 47 -e 999.892887
N -t 0.118255 -n 37 -e 999.892869
N -t 0.118255 -n 39 -e 999.892869
N -t 0.118255 -n 49 -e 999.892887
N -t 0.118255 -n 32 -e 999.892869
N -t 0.118255 -n 34 -e 999.892869
N -t 0.118255 -n 28 -e 999.892851
N -t 0.118255 -n 27 -e 999.892850
N -t 0.118255 -n 29 -e 999.892868
N -t 0.118255 -n 23 -e 999.892850
N -t 0.118255 -n 41 -e 999.892904
N -t 0.118255 -n 46 -e 999.892904
N -t 0.118255 -n 36 -e 999.892904
N -t 0.118255 -n 22 -e 999.892868
N -t 0.118255 -n 31 -e 999.892904
N -t 0.118255 -n 24 -e 999.892868
N -t 0.118255 -n 18 -e 999.892850
N -t 0.118255 -n 26 -e 999.892850
N -t 0.118256 -n 17 -e 999.892850
N -t 0.118256 -n 19 -e 999.892850
r 0.118974158 _38_ MAC  --- 4 message 32 [0 ffffffff 2b 800] [energy 999.892869 ei 0.105 es 0.000 et 0.000 er 0.002] ------- [43:255 -1:255 32 0] 
r 0.118974158 _48_ MAC  --- 4 message 32 [0 ffffffff 2b 800] [energy 999.892887 ei 0.106 es 0.000 et 0.000 er 0.001] ------- [43:255 -1:255 32 0] 
r 0.118974491 _33_ MAC  --- 4 message 32 [0 ffffffff 2b 800] [energy 999.892869 ei 0.105 es 0.000 et 0.000 er 0.002] ------- [43:255 -1:255 32 0] 
r 0.118974491 _42_ MAC  --- 4 message 32 [0 ffffffff 2b 800] [energy 999.892887 ei 0.106 es 0.000 et 0.000 er 0.001] ------- [43:255 -1:255 32 0] 
r 0.118974491 _44_ MAC  --- 4 message 32 [0 ffffffff 2b 800] [energy 999.892527 ei 0.106 es 0.000 et 0.001 er 0.001] ------- [43:255 -1:255 32 0] 
r 0.118974570 _47_ MAC  --- 4 message 32 [0 ffffffff 2b 800] [energy 999.892887 ei 0.106 es 0.000 et 0.000 er 0.001] ------- [43:255 -1:255 32 0] 
r 0.118974570 _37_ MAC  --- 4 message 32 [0 ffffffff 2b 800] [energy 999.892869 ei 0.105 es 0.000 et 0.000 er 0.002] ------- [43:255 -1:255 32 0] 
r 0.118974570 _39_ MAC  --- 4 message 32 [0 ffffffff 2b 800] [energy 999.892869 ei 0.105 es 0.000 et 0.000 er 0.002] ------- [43:255 -1:255 32 0] 
r 0.118974570 _49_ MAC  --- 4 message 32 [0 ffffffff 2b 800] [energy 999.892887 ei 0.106 es 0.000 et 0.000 er 0.001] ------- [43:255 -1:255 32 0] 
s 0.181729328 _3_ MAC  --- 5 message 90 [0 ffffffff 3 800] [energy 999.920141 ei 0.079 es 0.000 et 0.000 er 0.001] ------- [3:255 -1:255 32 0] 
N -t 0.181730 -n 8 -e 999.835741
N -t 0.181730 -n 2 -e 999.835363
N -t 0.181730 -n 13 -e 999.835381
N -t 0.181730 -n 4 -e 999.835741
N -t 0.181730 -n 7 -e 999.835723
N -t 0.181730 -n 9 -e 999.835741
N -t 0.181730 -n 12 -e 999.835723
N -t 0.181730 -n 14 -e 999.835741
N -t 0.181730 -n 18 -e 999.835705
N -t 0.181731 -n 17 -e 999.835705
N -t 0.181731 -n 19 -e 999.835705
N -t 0.181731 -n 1 -e 999.835722
N -t 0.181731 -n 23 -e 999.835704
N -t 0.181731 -n 6 -e 999.835722
N -t 0.181731 -n 22 -e 999.835722
N -t 0.181731 -n 11 -e 999.835722
N -t 0.181731 -n 24 -e 999.835722
N -t 0.181731 -n 16 -e 999.835722
N -t 0.181731 -n 28 -e 999.835704
N -t 0.181731 -n 27 -e 999.835704
N -t 0.181731 -n 29 -e 999.835722
r 0.182449661 _8_ MAC  --- 5 message 32 [0 ffffffff 3 800] [energy 999.835741 ei 0.162 es 0.000 et 0.000 er 0.002] ------- [3:255 -1:255 32 0] 
r 0.182449995 _2_ MAC  --- 5 message 32 [0 ffffffff 3 800] [energy 999.835363 ei 0.162 es 0.000 et 0.001 er 0.002] ------- [3:255 -1:255 32 0] 
r 0.182449995 _13_ MAC  --- 5 message 32 [0 ffffffff 3 800] [energy 999.835381 ei 0.162 es 0.000 et 0.001 er 0.001] ------- [3:255 -1:255 32 0] 
r 0.182449995 _4_ MAC  --- 5 message 32 [0 ffffffff 3 800] [energy 999.835741 ei 0.162 es 0.000 et 0.000 er 0.002] ------- [3:255 -1:255 32 0] 
r 0.182450074 _7_ MAC  --- 5 message 32 [0 ffffffff 3 800] [energy 999.835723 ei 0.162 es 0.000 et 0.000 er 0.003] ------- [3:255 -1:255 32 0] 
r 0.182450074 _9_ MAC  --- 5 message 32 [0 ffffffff 3 800] [energy 999.835741 ei 0.162 es 0.000 et 0.000 er 0.002] ------- [3:255 -1:255 32 0] 
s 0.196836711 _19_ MAC  --- 6 message 90 [0 ffffffff 13 800] [energy 999.835705 ei 0.161 es 0.000 et 0.000 er 0.003] ------- [19:255 -1:255 32 0] 
N -t 0.196837 -n 14 -e 999.822127
N -t 0.196837 -n 24 -e 999.822109
N -t 0.196837 -n 9 -e 999.822126
N -t 0.196837 -n 18 -e 999.822090
N -t 0.196837 -n 29 -e 999.822108
N -t 0.196837 -n 23 -e 999.822090
N -t 0.196837 -n 13 -e 999.821766
N -t 0.196838 -n 28 -e 999.822090
N -t 0.196838 -n 8 -e 999.822126
N -t 0.196838 -n 4 -e 999.822126
N -t 0.196838 -n 34 -e 999.822126
N -t 0.196838 -n 33 -e 999.822126
N -t 0.196838 -n 3 -e 999.821766
N -t 0.196838 -n 17 -e 999.822090
N -t 0.196838 -n 39 -e 999.822126
N -t 0.196838 -n 22 -e 999.822108
N -t 0.196838 -n 12 -e 999.822108
N -t 0.196838 -n 38 -e 999.822126
N -t 0.196838 -n 27 -e 999.822090
N -t 0.196838 -n 7 -e 999.822108
N -t 0.196838 -n 32 -e 999.822125
N -t 0.196838 -n 2 -e 999.821747
N -t 0.196838 -n 44 -e 999.821783
N -t 0.196839 -n 43 -e 999.821783
r 0.197557044 _14_ MAC  --- 6 message 32 [0 ffffffff 13 800] [energy 999.822127 ei 0.175 es 0.000 et 0.000 er 0.003] ------- [19:255 -1:255 32 0] 
r 0.197557044 _24_ MAC  --- 6 message 32 [0 ffffffff 13 800] [energy 999.822109 ei 0.175 es 0.000 et 0.000 er 0.003] ------- [19:255 -1:255 32 0] 
r 0.197557377 _9_ MAC  --- 6 message 32 [0 ffffffff 13 800] [energy 999.822126 ei 0.175 es 0.000 et 0.000 er 0.003] ------- [19:255 -1:255 32 0] 
r 0.197557377 _18_ MAC  --- 6 message 32 [0 ffffffff 13 800] [energy 999.822090 ei 0.174 es 0.000 et 0.000 er 0.004] ------- [19:255 -1:255 32 0] 
r 0.197557377 _29_ MAC  --- 6 message 32 [0 ffffffff 13 800] [energy 999.822108 ei 0.175 es 0.000 et 0.000 er 0.003] ------- [19:255 -1:255 32 0] 
r 0.197557456 _23_ MAC  --- 6 message 32 [0 ffffffff 13 800] [energy 999.822090 ei 0.174 es 0.000 et 0.000 er 0.004] ------- [19:255 -1:255 32 0] 
r 0.197557456 _13_ MAC  --- 6 message 32 [0 ffffffff 13 800] [energy 999.821766 ei 0.175 es 0.000 et 0.001 er 0.002] ------- [19:255 -1:255 32 0] 
s 0.224933069 _36_ MAC  --- 7 message 90 [0 ffffffff 24 800] [energy 999.892904 ei 0.106 es 0.000 et 0.000 er 0.001] ------- [36:255 -1:255 32 0] 
N -t 0.224933 -n 31 -e 999.796876
N -t 0.224933 -n 41 -e 999.796876
N -t 0.224934 -n 26 -e 999.796822
N -t 0.224934 -n 35 -e 999.796894
N -t 0.224934 -n 46 -e 999.796876
N -t 0.224934 -n 37 -e 999.796840
N -t 0.224934 -n 40 -e 999.796894
N -t 0.224934 -n 30 -e 999.796894
N -t 0.224934 -n 32 -e 999.796822
N -t 0.224934 -n 42 -e 999.796858
N -t 0.224934 -n 45 -e 999.796893
N -t 0.224934 -n 25 -e 999.796875
N -t 0.224934 -n 27 -e 999.796785
N -t 0.224934 -n 47 -e 999.796857
N -t 0.224934 -n 21 -e 999.796839
N -t 0.224934 -n 20 -e 999.796875
N -t 0.224934 -n 22 -e 999.796803
N -t 0.224934 -n 16 -e 999.796821
N -t 0.224934 -n 38 -e 999.796821
N -t 0.224934 -n 33 -e 999.796821
N -t 0.224934 -n 43 -e 999.796479
N -t 0.224935 -n 15 -e 999.796857
N -t 0.224935 -n 17 -e 999.796785
N -t 0.224935 -n 28 -e 999.796785
N -t 0.224935 -n 48 -e 999.796857
N -t 0.224935 -n 11 -e 999.796821
N -t 0.224935 -n 23 -e 999.796785
N -t 0.224935 -n 10 -e 999.796857
N -t 0.224935 -n 12 -e 999.796803
r 0.225653402 _31_ MAC  --- 7 message 32 [0 ffffffff 24 800] [energy 999.796876 ei 0.202 es 0.000 et 0.000 er 0.001] ------- [36:255 -1:255 32 0] 
r 0.225653402 _41_ MAC  --- 7 message 32 [0 ffffffff 24 800] [energy 999.796876 ei 0.202 es 0.000 et 0.000 er 0.001] ------- [36:255 -1:255 32 0] 
r 0.225653735 _26_ MAC  --- 7 message 32 [0 ffffffff 24 800] [energy 999.796822 ei 0.200 es 0.000 et 0.000 er 0.003] ------- [36:255 -1:255 32 0] 
r 0.225653735 _35_ MAC  --- 7 message 32 [0 ffffffff 24 800] [energy 999.796894 ei 0.202 es 0.000 et 0.000 er 0.001] ------- [36:255 -1:255 32 0] 
r 0.225653735 _46_ MAC  --- 7 message 32 [0 ffffffff 24 800] [energy 999.796876 ei 0.202 es 0.000 et 0.000 er 0.001] ------- [36:255 -1:255 32 0] 
r 0.225653735 _37_ MAC  --- 7 message 32 [0 ffffffff 24 800] [energy 999.796840 ei 0.200 es 0.000 et 0.000 er 0.003] ------- [36:255 -1:255 32 0] 
r 0.225653814 _40_ MAC  --- 7 message 32 [0 ffffffff 24 800] [energy 999.796894 ei 0.202 es 0.000 et 0.000 er 0.001] ------- [36:255 -1:255 32 0] 
r 0.225653814 _30_ MAC  --- 7 message 32 [0 ffffffff 24 800] [energy 999.796894 ei 0.202 es 0.000 et 0.000 er 0.001] ------- [36:255 -1:255 32 0] 
r 0.225653814 _32_ MAC  --- 7 message 32 [0 ffffffff 24 800] [energy 999.796822 ei 0.200 es 0.000 et 0.000 er 0.003] ------- [36:255 -1:255 32 0] 
r 0.225653814 _42_ MAC  --- 7 message 32 [0 ffffffff 24 800] [energy 999.796858 ei 0.201 es 0.000 et 0.000 er 0.002] ------- [36:255 -1:255 32 0] 
s 0.232457750 _42_ MAC  --- 8 message 90 [0 ffffffff 2a 800] [energy 999.796858 ei 0.201 es 0.000 et 0.000 er 0.002] ------- [42:255 -1:255 32 0] 
N -t 0.232458 -n 37 -e 999.790050
N -t 0.232458 -n 47 -e 999.790068
N -t 0.232458 -n 32 -e 999.790031
N -t 0.232458 -n 41 -e 999.790085
N -t 0.232458 -n 43 -e 999.789689
N -t 0.232458 -n 46 -e 999.790085
N -t 0.232458 -n 36 -e 999.789725
N -t 0.232458 -n 38 -e 999.790031
N -t 0.232458 -n 48 -e 999.790067
N -t 0.232459 -n 31 -e 999.790085
N -t 0.232459 -n 33 -e 999.790031
N -t 0.232459 -n 27 -e 999.789995
N -t 0.232459 -n 26 -e 999.790031
N -t 0.232459 -n 28 -e 999.789995
N -t 0.232459 -n 22 -e 999.790013
N -t 0.232459 -n 40 -e 999.790103
N -t 0.232459 -n 44 -e 999.789707
N -t 0.232459 -n 45 -e 999.790103
N -t 0.232459 -n 35 -e 999.790103
N -t 0.232459 -n 39 -e 999.790049
N -t 0.232459 -n 49 -e 999.790085
N -t 0.232459 -n 21 -e 999.790049
N -t 0.232459 -n 30 -e 999.790103
N -t 0.232459 -n 23 -e 999.789995
N -t 0.232459 -n 34 -e 999.790049
N -t 0.232459 -n 17 -e 999.789995
N -t 0.232459 -n 25 -e 999.790085
N -t 0.232459 -n 29 -e 999.790031
N -t 0.232460 -n 16 -e 999.790030
N -t 0.232460 -n 18 -e 999.790012
r 0.233178083 _37_ MAC  --- 8 message 32 [0 ffffffff 2a 800] [energy 999.790050 ei 0.207 es 0.000 et 0.000 er 0.003] ------- [42:255 -1:255 32 0] 
r 0.233178083 _47_ MAC  --- 8 message 32 [0 ffffffff 2a 800] [energy 999.790068 ei 0.207 es 0.000 et 0.000 er 0.003] ------- [42:255 -1:255 32 0] 
r 0.233178417 _32_ MAC  --- 8 message 32 [0 ffffffff 2a 800] [energy 999.790031 ei 0.206 es 0.000 et 0.000 er 0.004] ------- [42:255 -1:255 32 0] 
r 0.233178417 _41_ MAC  --- 8 message 32 [0 ffffffff 2a 800] [energy 999.790085 ei 0.208 es 0.000 et 0.000 er 0.002] ------- [42:255 -1:255 32 0] 
r 0.233178417 _43_ MAC  --- 8 message 32 [0 ffffffff 2a 800] [energy 999.789689 ei 0.207 es 0.000 et 0.001 er 0.003] ------- [42:255 -1:255 32 0] 
r 0.233178495 _46_ MAC  --- 8 message 32 [0 ffffffff 2a 800] [energy 999.790085 ei 0.208 es 0.000 et 0.000 er 0.002] ------- [42:255 -1:255 32 0] 
r 0.233178495 _36_ MAC  --- 8 message 32 [0 ffffffff 2a 800] [energy 999.789725 ei 0.208 es 0.000 et 0.001 er 0.001] ------- [42:255 -1:255 32 0] 
r 0.233178495 _38_ MAC  --- 8 message 32 [0 ffffffff 2a 800] [energy 999.790031 ei 0.206 es 0.000 et 0.000 er 0.004] ------- [42:255 -1:255 32 0] 
r 0.233178495 _48_ MAC  --- 8 message 32 [0 ffffffff 2a 800] [energy 999.790067 ei 0.207 es 0.000 et 0.000 er 0.003] ------- [42:255 -1:255 32 0] 
s 0.235869248 _15_ MAC  --- 9 message 90 [0 ffffffff f 800] [energy 999.796857 ei 0.201 es 0.000 et 0.000 er 0.002] ------- [15:255 -1:255 32 0] 
N -t 0.235870 -n 10 -e 999.786997
N -t 0.235870 -n 20 -e 999.787015
N -t 0.235870 -n 5 -e 999.787015
N -t 0.235870 -n 25 -e 999.786997
N -t 0.235870 -n 16 -e 999.786943
N -t 0.235870 -n 11 -e 999.786961
N -t 0.235870 -n 21 -e 999.786961
N -t 0.235870 -n 6 -e 999.786979
N -t 0.235870 -n 26 -e 999.786943
N -t 0.235870 -n 0 -e 999.786655
N -t 0.235870 -n 30 -e 999.787015
N -t 0.235870 -n 1 -e 999.786979
N -t 0.235870 -n 31 -e 999.786997
N -t 0.235871 -n 35 -e 999.787014
N -t 0.235871 -n 17 -e 999.786906
N -t 0.235871 -n 12 -e 999.786942
N -t 0.235871 -n 22 -e 999.786924
N -t 0.235871 -n 36 -e 999.786636
N -t 0.235871 -n 7 -e 999.786960
N -t 0.235871 -n 27 -e 999.786906
N -t 0.235871 -n 40 -e 999.787014
N -t 0.235871 -n 2 -e 999.786600
N -t 0.235871 -n 32 -e 999.786942
N -t 0.235871 -n 41 -e 999.786996
r 0.236589581 _10_ MAC  --- 9 message 32 [0 ffffffff f 800] [energy 999.786997 ei 0.210 es 0.000 et 0.000 er 0.003] ------- [15:255 -1:255 32 0] 
r 0.236589581 _20_ MAC  --- 9 message 32 [0 ffffffff f 800] [energy 999.787015 ei 0.211 es 0.000 et 0.000 er 0.002] ------- [15:255 -1:255 32 0] 
r 0.236589914 _5_ MAC  --- 9 message 32 [0 ffffffff f 800] [energy 999.787015 ei 0.211 es 0.000 et 0.000 er 0.002] ------- [15:255 -1:255 32 0] 
r 0.236589914 _25_ MAC  --- 9 message 32 [0 ffffffff f 800] [energy 999.786997 ei 0.210 es 0.000 et 0.000 er 0.003] ------- [15:255 -1:255 32 0] 
r 0.236589914 _16_ MAC  --- 9 message 32 [0 ffffffff f 800] [energy 999.786943 ei 0.208 es 0.000 et 0.000 er 0.005] ------- [15:255 -1:255 32 0] 
r 0.236589993 _11_ MAC  --- 9 message 32 [0 ffffffff f 800] [energy 999.786961 ei 0.209 es 0.000 et 0.000 er 0.004] ------- [15:255 -1:255 32 0] 
r 0.236589993 _21_ MAC  --- 9 message 32 [0 ffffffff f 800] [energy 999.786961 ei 0.209 es 0.000 et 0.000 er 0.004] ------- [15:255 -1:255 32 0] 
s 0.246463737 _47_ MAC  --- 10 message 90 [0 ffffffff 2f 800] [energy 999.790068 ei 0.207 es 0.000 et 0.000 er 0.003] ------- [47:255 -1:255 32 0] 
N -t 0.246464 -n 42 -e 999.777084
N -t 0.246464 -n 37 -e 999.777426
N -t 0.246464 -n 46 -e 999.777462
N -t 0.246464 -n 48 -e 999.777444
N -t 0.246464 -n 41 -e 999.777444
N -t 0.246464 -n 43 -e 999.777066
N -t 0.246465 -n 36 -e 999.777084
N -t 0.246465 -n 38 -e 999.777408
N -t 0.246465 -n 32 -e 999.777390
N -t 0.246465 -n 31 -e 999.777444
N -t 0.246465 -n 33 -e 999.777408
N -t 0.246465 -n 27 -e 999.777353
N -t 0.246465 -n 45 -e 999.777479
N -t 0.246465 -n 49 -e 999.777461
N -t 0.246465 -n 40 -e 999.777461
N -t 0.246465 -n 44 -e 999.777083
N -t 0.246465 -n 26 -e 999.777389
N -t 0.246465 -n 35 -e 999.777461
N -t 0.246465 -n 28 -e 999.777371
N -t 0.246465 -n 39 -e 999.777425
N -t 0.246465 -n 22 -e 999.777371
N -t 0.246465 -n 30 -e 999.777461
N -t 0.246465 -n 34 -e 999.777425
N -t 0.246466 -n 21 -e 999.777407
N -t 0.246466 -n 23 -e 999.777371
r 0.247184070 _42_ MAC  --- 10 message 32 [0 ffffffff 2f 800] [energy 999.777084 ei 0.219 es 0.000 et 0.001 er 0.003] ------- [47:255 -1:255 32 0] 
r 0.247184404 _37_ MAC  --- 10 message 32 [0 ffffffff 2f 800] [energy 999.777426 ei 0.219 es 0.000 et 0.000 er 0.004] ------- [47:255 -1:255 32 0] 
r 0.247184404 _46_ MAC  --- 10 message 32 [0 ffffffff 2f 800] [energy 999.777462 ei 0.220 es 0.000 et 0.000 er 0.003] ------- [47:255 -1:255 32 0] 
r 0.247184404 _48_ MAC  --- 10 message 32 [0 ffffffff 2f 800] [energy 999.777444 ei 0.219 es 0.000 et 0.000 er 0.003] ------- [47:255 -1:255 32 0] 
r 0.247184482 _41_ MAC  --- 10 message 32 [0 ffffffff 2f 800] [energy 999.777444 ei 0.219 es 0.000 et 0.000 er 0.003] ------- [47:255 -1:255 32 0] 
r 0.247184482 _43_ MAC  --- 10 message 32 [0 ffffffff 2f 800] [energy 999.777066 ei 0.219 es 0.000 et 0.001 er 0.003] ------- [47:255 -1:255 32 0] 
s 0.337605205 _12_ MAC  --- 11 message 90 [0 ffffffff c 800] [energy 999.786942 ei 0.208 es 0.000 et 0.000 er 0.005] ------- [12:255 -1:255 32 0] 
N -t 0.337606 -n 7 -e 999.695381
N -t 0.337606 -n 17 -e 999.695327
N -t 0.337606 -n 2 -e 999.695021
N -t 0.337606 -n 11 -e 999.695381
N -t 0.337606 -n 22 -e 999.695327
N -t 0.337606 -n 13 -e 999.695057
N -t 0.337606 -n 16 -e 999.695363
N -t 0.337606 -n 6 -e 999.695399
N -t 0.337606 -n 8 -e 999.695417
N -t 0.337606 -n 18 -e 999.695363
N -t 0.337606 -n 21 -e 999.695362
N -t 0.337606 -n 1 -e 999.695398
N -t 0.337606 -n 3 -e 999.695056
N -t 0.337606 -n 23 -e 999.695326
N -t 0.337606 -n 27 -e 999.695308
N -t 0.337606 -n 26 -e 999.695344
N -t 0.337606 -n 28 -e 999.695326
N -t 0.337607 -n 10 -e 999.695416
N -t 0.337607 -n 32 -e 999.695344
N -t 0.337607 -n 14 -e 999.695416
N -t 0.337607 -n 15 -e 999.695056
N -t 0.337607 -n 5 -e 999.695434
N -t 0.337607 -n 9 -e 999.695416
N -t 0.337607 -n 19 -e 999.695020
N -t 0.337607 -n 31 -e 999.695398
N -t 0.337607 -n 20 -e 999.695434
N -t 0.337607 -n 0 -e 999.695074
N -t 0.337607 -n 33 -e 999.695362
N -t 0.337607 -n 4 -e 999.695416
N -t 0.337607 -n 24 -e 999.695398
N -t 0.337607 -n 25 -e 999.695416
N -t 0.337607 -n 37 -e 999.695380
N -t 0.337607 -n 29 -e 999.695380
N -t 0.337607 -n 36 -e 999.695038
N -t 0.337607 -n 38 -e 999.695362
r 0.338325539 _7_ MAC  --- 11 message 32 [0 ffffffff c 800] [energy 999.695381 ei 0.300 es 0.000 et 0.000 er 0.005] ------- [12:255 -1:255 32 0] 
r 0.338325539 _17_ MAC  --- 11 message 32 [0 ffffffff c 800] [energy 999.695327 ei 0.298 es 0.000 et 0.000 er 0.007] ------- [12:255 -1:255 32 0] 
r 0.338325872 _2_ MAC  --- 11 message 32 [0 ffffffff c 800] [energy 999.695021 ei 0.300 es 0.000 et 0.001 er 0.004] ------- [12:255 -1:255 32 0] 
r 0.338325872 _11_ MAC  --- 11 message 32 [0 ffffffff c 800] [energy 999.695381 ei 0.300 es 0.000 et 0.000 er 0.005] ------- [12:255 -1:255 32 0] 
r 0.338325872 _22_ MAC  --- 11 message 32 [0 ffffffff c 800] [energy 999.695327 ei 0.298 es 0.000 et 0.000 er 0.007] ------- [12:255 -1:255 32 0] 
r 0.338325872 _13_ MAC  --- 11 message 32 [0 ffffffff c 800] [energy 999.695057 ei 0.301 es 0.000 et 0.001 er 0.003] ------- [12:255 -1:255 32 0] 
r 0.338325951 _16_ MAC  --- 11 message 32 [0 ffffffff c 800] [energy 999.695363 ei 0.299 es 0.000 et 0.000 er 0.005] ------- [12:255 -1:255 32 0] 
r 0.338325951 _6_ MAC  --- 11 message 32 [0 ffffffff c 800] [energy 999.695399 ei 0.301 es 0.000 et 0.000 er 0.004] ------- [12:255 -1:255 32 0] 
r 0.338325951 _8_ MAC  --- 11 message 32 [0 ffffffff c 800] [energy 999.695417 ei 0.301 es 0.000 et 0.000 er 0.003] ------- [12:255 -1:255 32 0] 
r 0.338325951 _18_ MAC  --- 11 message 32 [0 ffffffff c 800] [energy 999.695363 ei 0.299 es 0.000 et 0.000 er 0.005] ------- [12:255 -1:255 32 0] 
s 0.349859010 _18_ MAC  --- 12 message 90 [0 ffffffff 12 800] [energy 999.695363 ei 0.299 es 0.000 et 0.000 er 0.005] ------- [18:255 -1:255 32 0] 
N -t 0.349859 -n 13 -e 999.684011
N -t 0.349859 -n 23 -e 999.684281
N -t 0.349860 -n 8 -e 999.684370
N -t 0.349860 -n 17 -e 999.684280
N -t 0.349860 -n 28 -e 999.684280
N -t 0.349860 -n 19 -e 999.683974
N -t 0.349860 -n 22 -e 999.684280
N -t 0.349860 -n 12 -e 999.683956
N -t 0.349860 -n 14 -e 999.684370
N -t 0.349860 -n 24 -e 999.684352
N -t 0.349860 -n 27 -e 999.684262
N -t 0.349860 -n 7 -e 999.684334
N -t 0.349860 -n 9 -e 999.684370
N -t 0.349860 -n 29 -e 999.684334
N -t 0.349860 -n 3 -e 999.684010
N -t 0.349860 -n 33 -e 999.684316
N -t 0.349860 -n 32 -e 999.684298
N -t 0.349860 -n 2 -e 999.683974
N -t 0.349860 -n 4 -e 999.684370
N -t 0.349860 -n 34 -e 999.684352
N -t 0.349860 -n 16 -e 999.684316
N -t 0.349860 -n 38 -e 999.684316
N -t 0.349860 -n 21 -e 999.684316
N -t 0.349860 -n 11 -e 999.684334
N -t 0.349861 -n 37 -e 999.684334
N -t 0.349861 -n 26 -e 999.684298
N -t 0.349861 -n 6 -e 999.684352
N -t 0.349861 -n 39 -e 999.684352
N -t 0.349861 -n 31 -e 999.684351
N -t 0.349861 -n 1 -e 999.684351
N -t 0.349861 -n 43 -e 999.683991
N -t 0.349861 -n 42 -e 999.684009
N -t 0.349861 -n 44 -e 999.684009
r 0.350579344 _13_ MAC  --- 12 message 32 [0 ffffffff 12 800] [energy 999.684011 ei 0.312 es 0.000 et 0.001 er 0.003] ------- [18:255 -1:255 32 0] 
r 0.350579344 _23_ MAC  --- 12 message 32 [0 ffffffff 12 800] [energy 999.684281 ei 0.308 es 0.000 et 0.000 er 0.007] ------- [18:255 -1:255 32 0] 
r 0.350579677 _8_ MAC  --- 12 message 32 [0 ffffffff 12 800] [energy 999.684370 ei 0.312 es 0.000 et 0.000 er 0.004] ------- [18:255 -1:255 32 0] 
r 0.350579677 _17_ MAC  --- 12 message 32 [0 ffffffff 12 800] [energy 999.684280 ei 0.308 es 0.000 et 0.000 er 0.007] ------- [18:255 -1:255 32 0] 
r 0.350579677 _28_ MAC  --- 12 message 32 [0 ffffffff 12 800] [energy 999.684280 ei 0.308 es 0.000 et 0.000 er 0.007] ------- [18:255 -1:255 32 0] 
r 0.350579677 _19_ MAC  --- 12 message 32 [0 ffffffff 12 800] [energy 999.683974 ei 0.310 es 0.000 et 0.001 er 0.005] ------- [18:255 -1:255 32 0] 
r 0.350579756 _22_ MAC  --- 12 message 32 [0 ffffffff 12 800] [energy 999.684280 ei 0.308 es 0.000 et 0.000 er 0.007] ------- [18:255 -1:255 32 0] 
r 0.350579756 _12_ MAC  --- 12 message 32 [0 ffffffff 12 800] [energy 999.683956 ei 0.310 es 0.000 et 0.001 er 0.005] ------- [18:255 -1:255 32 0] 
r 0.350579756 _14_ MAC  --- 12 message 32 [0 ffffffff 12 800] [energy 999.684370 ei 0.312 es 0.000 et 0.000 er 0.004] ------- [18:255 -1:255 32 0] 
r 0.350579756 _24_ MAC  --- 12 message 32 [0 ffffffff 12 800] [energy 999.684352 ei 0.311 es 0.000 et 0.000 er 0.005] ------- [18:255 -1:255 32 0] 
s 0.383363802 _38_ MAC  --- 13 message 90 [0 ffffffff 26 800] [energy 999.684316 ei 0.310 es 0.000 et 0.000 er 0.006] ------- [38:255 -1:255 32 0] 
N -t 0.383364 -n 33 -e 999.654144
N -t 0.383364 -n 43 -e 999.653820
N -t 0.383364 -n 28 -e 999.654108
N -t 0.383364 -n 37 -e 999.654162
N -t 0.383364 -n 48 -e 999.654216
N -t 0.383364 -n 39 -e 999.654180
N -t 0.383365 -n 42 -e 999.653838
N -t 0.383365 -n 32 -e 999.654126
N -t 0.383365 -n 34 -e 999.654180
N -t 0.383365 -n 44 -e 999.653838
N -t 0.383365 -n 47 -e 999.653856
N -t 0.383365 -n 27 -e 999.654090
N -t 0.383365 -n 29 -e 999.654162
N -t 0.383365 -n 49 -e 999.654234
N -t 0.383365 -n 23 -e 999.654108
N -t 0.383365 -n 22 -e 999.654107
N -t 0.383365 -n 24 -e 999.654179
N -t 0.383365 -n 18 -e 999.653783
N -t 0.383365 -n 36 -e 999.653837
N -t 0.383365 -n 41 -e 999.654215
N -t 0.383365 -n 31 -e 999.654179
N -t 0.383365 -n 17 -e 999.654107
N -t 0.383365 -n 46 -e 999.654233
N -t 0.383365 -n 26 -e 999.654125
N -t 0.383365 -n 19 -e 999.653801
N -t 0.383365 -n 13 -e 999.653837
N -t 0.383365 -n 21 -e 999.654143
N -t 0.383366 -n 12 -e 999.653783
N -t 0.383366 -n 14 -e 999.654197
r 0.384084135 _33_ MAC  --- 13 message 32 [0 ffffffff 26 800] [energy 999.654144 ei 0.339 es 0.000 et 0.000 er 0.007] ------- [38:255 -1:255 32 0] 
r 0.384084135 _43_ MAC  --- 13 message 32 [0 ffffffff 26 800] [energy 999.653820 ei 0.340 es 0.000 et 0.001 er 0.005] ------- [38:255 -1:255 32 0] 
r 0.384084469 _28_ MAC  --- 13 message 32 [0 ffffffff 26 800] [energy 999.654108 ei 0.338 es 0.000 et 0.000 er 0.008] ------- [38:255 -1:255 32 0] 
r 0.384084469 _37_ MAC  --- 13 message 32 [0 ffffffff 26 800] [energy 999.654162 ei 0.340 es 0.000 et 0.000 er 0.006] ------- [38:255 -1:255 32 0] 
r 0.384084469 _48_ MAC  --- 13 message 32 [0 ffffffff 26 800] [energy 999.654216 ei 0.342 es 0.000 et 0.000 er 0.004] ------- [38:255 -1:255 32 0] 
r 0.384084469 _39_ MAC  --- 13 message 32 [0 ffffffff 26 800] [energy 999.654180 ei 0.340 es 0.000 et 0.000 er 0.005] ------- [38:255 -1:255 32 0] 
r 0.384084547 _42_ MAC  --- 13 message 32 [0 ffffffff 26 800] [energy 999.653838 ei 0.341 es 0.000 et 0.001 er 0.004] ------- [38:255 -1:255 32 0] 